User input:
--------------------------------------------------------------
 $rem
 JOBTYPE SP
 EXCHANGE B3LYP
 CORRELATION NONE
 SCF_MAX_CYCLES 150
 BASIS 6-31G*

 nbo 1

print_orbitals 10
molden_format true
 $end

$molecule
0 1
 H     0.000000     0.000000     0.000000
 O     0.000000     0.000000     0.950000
 C     1.319934     0.000000     1.416662
 H     1.319939     0.000000     2.505662
 H     1.833293    -0.889165     1.053660
 H     1.833293     0.889165     1.053660
$end
--------------------------------------------------------------

             Standard Nuclear Orientation (Angstroms)
    I     Atom           X                Y                Z
 ----------------------------------------------------------------
    1      H       1.1423394976    -0.7302845339    -0.0000000000
    2      O       0.7336102377     0.1272936795    -0.0000000000
    3      C      -0.6586898207    -0.0193341972     0.0000000000
    4      H      -1.1272271385     0.9637190983     0.0000000000
    5      H      -0.9659276682    -0.5678894085    -0.8891650000
    6      H      -0.9659276682    -0.5678894085     0.8891650000
 ----------------------------------------------------------------

    7    -115.7124239102      5.48E-06 Convergence criterion met
 Total energy in the final basis set = -115.7124239102

             Orbital Energies (a.u.) and Symmetries
 --------------------------------------------------------------

 Alpha MOs, Restricted
 -- Occupied --
-19.133 -10.221  -1.017  -0.681  -0.505  -0.440  -0.427  -0.324
  1 A'    2 A'    3 A'    4 A'    5 A'    1 A"    6 A'    7 A'
 -0.260
  2 A"

 Beta MOs, Restricted
 -- Occupied --
-19.133 -10.221  -1.017  -0.681  -0.505  -0.440  -0.427  -0.324
  1 A'    2 A'    3 A'    4 A'    5 A'    1 A"    6 A'    7 A'
 -0.260
  2 A"

          Ground-State Mulliken Net Atomic Charges

     Atom                 Charge (a.u.)
  ----------------------------------------
      1 H                     0.392838
      2 O                    -0.611983
      3 C                    -0.198954
      4 H                     0.160691
      5 H                     0.128704
      6 H                     0.128704
  ----------------------------------------
  Sum of atomic charges =    -0.000000

                    Cartesian Multipole Moments
 -----------------------------------------------------------------
    Charge (ESU x 10^10)
                -0.0000
    Dipole Moment (Debye)
         X      -0.6939      Y      -1.5162      Z       0.0000
       Tot       1.6674
    Quadrupole Moments (Debye-Ang)
        XX     -12.5245     XY      -2.3105     YY     -12.0170
        XZ       0.0000     YZ      -0.0000     ZZ     -13.5011

 Total job time:  9.11s(wall), 4.54s(cpu)
        *  Thank you very much for using Q-Chem.  Have a nice day.  *
